REMARK SMILES FC(F)(F)c1coc(-c2ccncc2)c1
REMARK SMILES IDX 8 1 15 2 5 3 6 4 7 5 9 6 10 7 14 8 11 9 13 10 12 11 2 12
REMARK SMILES IDX 1 13 3 14 4 15
REMARK H PARENT
ROOT
ATOM      1  C   UNL     1       5.828  -2.328  18.977  1.00  0.00    +0.134 A 
ATOM      2  C   UNL     1       5.643  -0.970  19.152  1.00  0.00    +0.064 A 
ATOM      3  C   UNL     1       6.099  -0.324  17.963  1.00  0.00    +0.094 A 
ATOM      4  C   UNL     1       6.532  -1.344  17.142  1.00  0.00    +0.208 A 
ATOM      5  O   UNL     1       6.372  -2.549  17.742  1.00  0.00    -0.464 OA
ENDROOT
BRANCH   1   6
ATOM      6  C   UNL     1       5.574  -3.511  19.795  1.00  0.00    +0.020 A 
ATOM      7  C   UNL     1       5.018  -3.391  21.072  1.00  0.00    +0.032 A 
ATOM      8  C   UNL     1       5.876  -4.795  19.329  1.00  0.00    +0.032 A 
ATOM      9  C   UNL     1       4.794  -4.540  21.815  1.00  0.00    +0.111 A 
ATOM     10  C   UNL     1       5.615  -5.883  20.146  1.00  0.00    +0.111 A 
ATOM     11  N   UNL     1       5.080  -5.784  21.380  1.00  0.00    -0.265 NA
ENDBRANCH   1   6
BRANCH   3  12
ATOM     12  C   UNL     1       6.113   1.124  17.657  1.00  0.00    +0.419 C 
ATOM     13  F   UNL     1       7.370   1.578  17.424  1.00  0.00    -0.166 F 
ATOM     14  F   UNL     1       5.377   1.414  16.555  1.00  0.00    -0.166 F 
ATOM     15  F   UNL     1       5.608   1.867  18.675  1.00  0.00    -0.166 F 
ENDBRANCH   3  12
TORSDOF 2
