REMARK SMILES NC(=O)c1csc(NC(=O)c2ccncc2)c1
REMARK SMILES IDX 7 1 17 2 4 3 5 4 6 5 8 6 9 7 10 8 11 10 12 11 16 12 13 13
REMARK SMILES IDX 15 14 14 15 2 16 3 17 1 18
REMARK H PARENT 8 9 1 19 1 20
ROOT
ATOM      1  C   UNL     1       5.914  -4.718  20.753  1.00  0.00    +0.096 A 
ATOM      2  C   UNL     1       5.292  -4.897  21.962  1.00  0.00    +0.052 A 
ATOM      3  C   UNL     1       5.519  -6.211  22.515  1.00  0.00    +0.052 A 
ATOM      4  C   UNL     1       6.322  -6.951  21.663  1.00  0.00    +0.081 A 
ATOM      5  S   UNL     1       6.779  -6.088  20.254  1.00  0.00    -0.126 S 
ENDROOT
BRANCH   1   6
ATOM      6  N   UNL     1       5.986  -3.666  19.871  1.00  0.00    -0.314 N 
ATOM      7  C   UNL     1       5.329  -2.468  20.066  1.00  0.00    +0.256 C 
ATOM      8  O   UNL     1       4.559  -2.198  20.981  1.00  0.00    -0.269 OA
ATOM      9  H   UNL     1       6.559  -3.777  19.023  1.00  0.00    +0.171 HD
BRANCH   7  10
ATOM     10  C   UNL     1       5.572  -1.436  19.021  1.00  0.00    +0.043 A 
ATOM     11  C   UNL     1       4.539  -0.549  18.716  1.00  0.00    +0.034 A 
ATOM     12  C   UNL     1       6.801  -1.315  18.371  1.00  0.00    +0.034 A 
ATOM     13  C   UNL     1       4.770   0.408  17.747  1.00  0.00    +0.112 A 
ATOM     14  C   UNL     1       6.931  -0.321  17.418  1.00  0.00    +0.112 A 
ATOM     15  N   UNL     1       5.941   0.534  17.086  1.00  0.00    -0.265 NA
ENDBRANCH   7  10
ENDBRANCH   1   6
BRANCH   3  16
ATOM     16  C   UNL     1       4.967  -6.657  23.793  1.00  0.00    +0.249 C 
ATOM     17  O   UNL     1       4.290  -5.936  24.518  1.00  0.00    -0.270 OA
ATOM     18  N   UNL     1       5.231  -7.941  24.173  1.00  0.00    -0.366 N 
ATOM     19  H   UNL     1       5.799  -8.551  23.567  1.00  0.00    +0.159 HD
ATOM     20  H   UNL     1       4.862  -8.301  25.064  1.00  0.00    +0.159 HD
ENDBRANCH   3  16
TORSDOF 3
