REMARK SMILES CC(=O)Nc1cccc(F)c1
REMARK SMILES IDX 5 1 11 2 9 3 8 4 7 5 6 6 10 7 4 8 2 9 3 10 1 12
REMARK H PARENT 4 11
ROOT
ATOM      1  C   UNL     1       7.639   1.544  19.797  1.00  0.00    +0.044 A 
ATOM      2  C   UNL     1       8.114   0.328  19.306  1.00  0.00    +0.065 A 
ATOM      3  C   UNL     1       7.359  -0.387  18.378  1.00  0.00    +0.125 A 
ATOM      4  C   UNL     1       6.133   0.086  17.925  1.00  0.00    +0.039 A 
ATOM      5  C   UNL     1       5.650   1.298  18.409  1.00  0.00    +0.005 A 
ATOM      6  C   UNL     1       6.400   2.022  19.340  1.00  0.00    +0.026 A 
ATOM      7  F   UNL     1       7.822  -1.554  17.911  1.00  0.00    -0.207 F 
ENDROOT
BRANCH   1   8
ATOM      8  N   UNL     1       8.327   2.339  20.736  1.00  0.00    -0.326 N 
ATOM      9  C   UNL     1       9.552   2.076  21.324  1.00  0.00    +0.221 C 
ATOM     10  O   UNL     1      10.267   1.100  21.136  1.00  0.00    -0.275 OA
ATOM     11  H   UNL     1       7.865   3.216  21.017  1.00  0.00    +0.169 HD
ATOM     12  C   UNL     1       9.962   3.167  22.281  1.00  0.00    +0.114 C 
ENDBRANCH   1   8
TORSDOF 1
