REMARK SMILES O=C(Nc1cc(Cl)co1)c1ccncc1
REMARK SMILES IDX 4 1 5 2 6 3 8 4 9 5 7 6 3 7 2 8 1 9 10 11 11 12 15 13 12 14
REMARK SMILES IDX 14 15 13 16
REMARK H PARENT 3 10
ROOT
ATOM      1  C   UNL     1       6.124  -3.237  21.236  1.00  0.00    +0.201 A 
ATOM      2  C   UNL     1       5.534  -4.473  21.082  1.00  0.00    +0.090 A 
ATOM      3  C   UNL     1       5.741  -5.162  22.298  1.00  0.00    +0.081 A 
ATOM      4  C   UNL     1       6.441  -4.309  23.116  1.00  0.00    +0.218 A 
ATOM      5  O   UNL     1       6.679  -3.133  22.476  1.00  0.00    -0.447 OA
ATOM      6 Cl   UNL     1       5.214  -6.733  22.648  1.00  0.00    -0.081 Cl
ENDROOT
BRANCH   1   7
ATOM      7  N   UNL     1       6.274  -2.127  20.449  1.00  0.00    -0.292 N 
ATOM      8  C   UNL     1       5.777  -2.054  19.164  1.00  0.00    +0.258 C 
ATOM      9  O   UNL     1       5.160  -2.954  18.600  1.00  0.00    -0.269 OA
ATOM     10  H   UNL     1       6.778  -1.314  20.831  1.00  0.00    +0.173 HD
BRANCH   8  11
ATOM     11  C   UNL     1       6.012  -0.777  18.414  1.00  0.00    +0.043 A 
ATOM     12  C   UNL     1       5.511  -0.695  17.110  1.00  0.00    +0.034 A 
ATOM     13  C   UNL     1       6.696   0.322  18.939  1.00  0.00    +0.034 A 
ATOM     14  C   UNL     1       5.713   0.470  16.392  1.00  0.00    +0.112 A 
ATOM     15  C   UNL     1       6.845   1.444  18.138  1.00  0.00    +0.112 A 
ATOM     16  N   UNL     1       6.370   1.541  16.881  1.00  0.00    -0.265 NA
ENDBRANCH   8  11
ENDBRANCH   1   7
TORSDOF 2
