REMARK SMILES CC(=O)Nc1cc(C2CC2)co1
REMARK SMILES IDX 5 1 6 2 7 3 11 4 12 5 4 6 2 7 3 8 1 10 8 11 9 12 10 13
REMARK H PARENT 4 9
ROOT
ATOM      1  C   UNL     1       5.900  -1.640  19.529  1.00  0.00    +0.199 A 
ATOM      2  C   UNL     1       5.582  -2.882  19.023  1.00  0.00    +0.074 A 
ATOM      3  C   UNL     1       5.570  -3.753  20.131  1.00  0.00    -0.004 A 
ATOM      4  C   UNL     1       5.865  -3.005  21.241  1.00  0.00    +0.201 A 
ATOM      5  O   UNL     1       6.073  -1.710  20.879  1.00  0.00    -0.448 OA
ENDROOT
BRANCH   1   6
ATOM      6  N   UNL     1       6.072  -0.395  18.991  1.00  0.00    -0.297 N 
ATOM      7  C   UNL     1       5.938  -0.134  17.646  1.00  0.00    +0.223 C 
ATOM      8  O   UNL     1       5.671  -0.947  16.767  1.00  0.00    -0.275 OA
ATOM      9  H   UNL     1       6.312   0.383  19.622  1.00  0.00    +0.173 HD
ATOM     10  C   UNL     1       6.189   1.315  17.319  1.00  0.00    +0.114 C 
ENDBRANCH   1   6
BRANCH   3  11
ATOM     11  C   UNL     1       5.253  -5.260  20.105  1.00  0.00    +0.022 C 
ATOM     12  C   UNL     1       6.020  -6.156  19.169  1.00  0.00    +0.009 C 
ATOM     13  C   UNL     1       6.266  -6.235  20.646  1.00  0.00    +0.009 C 
ENDBRANCH   3  11
TORSDOF 2
