REMARK SMILES Clc1cnc(-c2ccccc2)nc1
REMARK SMILES IDX 5 1 4 2 3 3 2 4 13 5 12 6 1 7 6 8 7 9 11 10 8 11 10 12 9 13
REMARK H PARENT
ROOT
ATOM      1  C   UNL     1       5.502  -2.896  19.756  1.00  0.00    +0.159 A 
ATOM      2  N   UNL     1       5.518  -2.679  18.422  1.00  0.00    -0.235 NA
ATOM      3  C   UNL     1       5.463  -1.391  18.015  1.00  0.00    +0.135 A 
ATOM      4  C   UNL     1       5.394  -0.322  18.876  1.00  0.00    +0.077 A 
ATOM      5  C   UNL     1       5.383  -0.643  20.212  1.00  0.00    +0.135 A 
ATOM      6  N   UNL     1       5.436  -1.911  20.678  1.00  0.00    -0.235 NA
ATOM      7 Cl   UNL     1       5.325   1.294  18.323  1.00  0.00    -0.081 Cl
ENDROOT
BRANCH   1   8
ATOM      8  C   UNL     1       5.561  -4.293  20.233  1.00  0.00    +0.019 A 
ATOM      9  C   UNL     1       5.549  -4.602  21.608  1.00  0.00    +0.012 A 
ATOM     10  C   UNL     1       5.631  -5.376  19.335  1.00  0.00    +0.012 A 
ATOM     11  C   UNL     1       5.604  -5.924  22.062  1.00  0.00    +0.001 A 
ATOM     12  C   UNL     1       5.687  -6.699  19.785  1.00  0.00    +0.001 A 
ATOM     13  C   UNL     1       5.674  -6.972  21.149  1.00  0.00    +0.000 A 
ENDBRANCH   1   8
TORSDOF 1
