REMARK SMILES CC(=O)NCCc1ncc(C)cn1
REMARK SMILES IDX 6 1 7 2 8 3 13 4 9 5 12 6 10 7 11 8 5 9 4 10 2 11 3 12 1 14
REMARK H PARENT 4 13
ROOT
ATOM      1  C   UNL     1       6.156  -1.155  19.761  1.00  0.00    +0.098 C 
ENDROOT
BRANCH   1   2
ATOM      2  C   UNL     1       6.549  -2.370  20.552  1.00  0.00    +0.129 A 
ATOM      3  N   UNL     1       5.643  -3.362  20.658  1.00  0.00    -0.241 NA
ATOM      4  N   UNL     1       7.787  -2.409  21.075  1.00  0.00    -0.241 NA
ATOM      5  C   UNL     1       6.027  -4.451  21.355  1.00  0.00    +0.118 A 
ATOM      6  C   UNL     1       8.117  -3.522  21.759  1.00  0.00    +0.118 A 
ATOM      7  C   UNL     1       7.272  -4.598  21.927  1.00  0.00    -0.014 A 
ATOM      8  C   UNL     1       7.653  -5.798  22.722  1.00  0.00    +0.048 C 
ENDBRANCH   1   2
BRANCH   1   9
ATOM      9  C   UNL     1       6.432  -1.383  18.279  1.00  0.00    +0.124 C 
BRANCH   9  10
ATOM     10  N   UNL     1       5.916  -0.307  17.447  1.00  0.00    -0.356 N 
ATOM     11  C   UNL     1       6.585   0.886  17.301  1.00  0.00    +0.216 C 
ATOM     12  O   UNL     1       7.636   1.154  17.872  1.00  0.00    -0.275 OA
ATOM     13  H   UNL     1       5.023  -0.443  16.952  1.00  0.00    +0.163 HD
ATOM     14  C   UNL     1       5.887   1.865  16.397  1.00  0.00    +0.114 C 
ENDBRANCH   9  10
ENDBRANCH   1   9
TORSDOF 3
