REMARK SMILES CC(C)(C)c1ccc(N(C(=O)c2c[nH]cn2)[C@@H](C(=O)NC2CCCCC2)c2cccnc2)cc1
REMARK SMILES IDX 9 1 10 2 11 3 12 4 13 5 16 6 14 7 15 8 8 10 7 11 33 12 6 13
REMARK SMILES IDX 34 14 5 15 2 16 1 17 3 18 4 19 17 20 18 21 20 22 19 23 21 25
REMARK SMILES IDX 22 26 26 27 23 28 25 29 24 30 27 31 28 32 32 33 29 34 31 35
REMARK SMILES IDX 30 36
REMARK H PARENT 14 9 20 24
ROOT
ATOM      1  N   UNL     1       0.514   1.122  -0.040  1.00  0.00    -0.290 N 
ENDROOT
BRANCH   1   2
ATOM      2  C   UNL     1       0.390   2.006   1.062  1.00  0.00    +0.279 C 
ATOM      3  O   UNL     1       1.224   2.090   1.964  1.00  0.00    -0.267 OA
BRANCH   2   4
ATOM      4  C   UNL     1      -0.823   2.829   1.184  1.00  0.00    +0.146 A 
ATOM      5  C   UNL     1      -0.896   4.053   1.824  1.00  0.00    +0.118 A 
ATOM      6  N   UNL     1      -2.088   2.451   0.778  1.00  0.00    -0.232 NA
ATOM      7  N   UNL     1      -2.207   4.429   1.762  1.00  0.00    -0.350 N 
ATOM      8  C   UNL     1      -2.889   3.430   1.133  1.00  0.00    +0.197 A 
ATOM      9  H   UNL     1      -2.607   5.306   2.125  1.00  0.00    +0.167 HD
ENDBRANCH   2   4
ENDBRANCH   1   2
BRANCH   1  10
ATOM     10  C   UNL     1       1.626   0.195  -0.116  1.00  0.00    +0.045 A 
ATOM     11  C   UNL     1       1.488  -1.046  -0.754  1.00  0.00    +0.027 A 
ATOM     12  C   UNL     1       2.883   0.491   0.420  1.00  0.00    +0.027 A 
ATOM     13  C   UNL     1       2.558  -1.947  -0.846  1.00  0.00    +0.006 A 
ATOM     14  C   UNL     1       3.957  -0.410   0.327  1.00  0.00    +0.006 A 
ATOM     15  C   UNL     1       3.820  -1.651  -0.307  1.00  0.00    -0.042 A 
BRANCH  15  16
ATOM     16  C   UNL     1       4.972  -2.662  -0.424  1.00  0.00    -0.013 C 
ATOM     17  C   UNL     1       6.294  -2.178   0.215  1.00  0.00    +0.016 C 
ATOM     18  C   UNL     1       5.263  -2.948  -1.913  1.00  0.00    +0.016 C 
ATOM     19  C   UNL     1       4.580  -3.979   0.279  1.00  0.00    +0.016 C 
ENDBRANCH  15  16
ENDBRANCH   1  10
BRANCH   1  20
ATOM     20  C   UNL     1      -0.373   1.188  -1.251  1.00  0.00    +0.212 C 
BRANCH  20  21
ATOM     21  C   UNL     1      -1.716   0.405  -1.139  1.00  0.00    +0.248 C 
ATOM     22  N   UNL     1      -1.825  -0.418  -0.028  1.00  0.00    -0.351 N 
ATOM     23  O   UNL     1      -2.567   0.405  -2.029  1.00  0.00    -0.272 OA
ATOM     24  H   UNL     1      -1.027  -0.494   0.619  1.00  0.00    +0.163 HD
BRANCH  22  25
ATOM     25  C   UNL     1      -3.035  -1.177   0.250  1.00  0.00    +0.082 C 
ATOM     26  C   UNL     1      -2.715  -2.355   1.184  1.00  0.00    +0.025 C 
ATOM     27  C   UNL     1      -4.136  -0.290   0.836  1.00  0.00    +0.025 C 
ATOM     28  C   UNL     1      -3.915  -2.831   2.006  1.00  0.00    +0.002 C 
ATOM     29  C   UNL     1      -5.441  -1.063   1.045  1.00  0.00    +0.002 C 
ATOM     30  C   UNL     1      -5.235  -2.556   1.301  1.00  0.00    +0.000 C 
ENDBRANCH  22  25
ENDBRANCH  20  21
BRANCH  20  31
ATOM     31  C   UNL     1      -0.401   2.572  -1.901  1.00  0.00    +0.003 A 
ATOM     32  C   UNL     1      -1.568   3.271  -2.226  1.00  0.00    +0.009 A 
ATOM     33  C   UNL     1       0.805   3.193  -2.235  1.00  0.00    +0.117 A 
ATOM     34  C   UNL     1      -1.491   4.522  -2.835  1.00  0.00    +0.020 A 
ATOM     35  N   UNL     1       0.912   4.408  -2.822  1.00  0.00    -0.264 NA
ATOM     36  C   UNL     1      -0.240   5.044  -3.110  1.00  0.00    +0.111 A 
ENDBRANCH  20  31
ENDBRANCH   1  20
TORSDOF 8
